4
Lattice="3.61 0.0 0.0 0.0 3.61 0.0 0.0 0.0 3.61" Properties=species:S:1:pos:R:3:momenta:R:3:forces:R:3:energies:R:1 energy=0.02406893496885054 free_energy=0.02406893496885054 pbc="T T T"
Cu       0.00950748       0.02250050      -0.05854532       0.97126025      -0.45198011       0.47504087      -0.06875259      -0.25827296       0.62697867       0.01352697
Cu       1.79616937       1.75051055       0.01322945       0.74095905       0.38592072       1.12931463       0.06438218       0.49861852       0.09519148       0.00295364
Cu       1.81469337      -0.00020757       1.81753805      -0.23217039      -1.03583562      -0.67403322      -0.07575518      -0.09336275      -0.28585653       0.00361278
Cu      -0.01037022       1.83719651       1.83777782      -1.48004890       1.10189501      -0.93032227       0.08012560      -0.14698280      -0.43631363       0.00397554
